# vtk DataFile Version 2.0
Volume example
ASCII
DATASET STRUCTURED_POINTS
DIMENSIONS 3 3 3
ASPECT_RATIO 1 1 1
ORIGIN 0 0 0
POINT_DATA 27
SCALARS volume_scalars char 1
LOOKUP_TABLE default
36  92  15  87  49  95  56  54  86
18   28   16   81   63   65   75   12  100
13  93   8  90  62  87  73  99  20
